 argument  1 = water.nw_mpi
                                         
                                         


             Northwest Computational Chemistry Package (NWChem) 7.0.2
             --------------------------------------------------------


                    Environmental Molecular Sciences Laboratory
                       Pacific Northwest National Laboratory
                                Richland, WA 99352

                              Copyright (c) 1994-2020
                       Pacific Northwest National Laboratory
                            Battelle Memorial Institute

             NWChem is an open-source computational chemistry package
                        distributed under the terms of the
                      Educational Community License (ECL) 2.0
             A copy of the license is included with this distribution
                              in the LICENSE.TXT file

                                  ACKNOWLEDGMENT
                                  --------------

            This software and its documentation were developed at the
            EMSL at Pacific Northwest National Laboratory, a multiprogram
            national laboratory, operated for the U.S. Department of Energy
            by Battelle under Contract Number DE-AC05-76RL01830. Support
            for this work was provided by the Department of Energy Office
            of Biological and Environmental Research, Office of Basic
            Energy Sciences, and the Office of Advanced Scientific Computing.


           Job information
           ---------------

    hostname        = LAPTOP-I2TCFNV7
    program         = nwchem
    date            = Thu Jul 17 18:45:06 2025

    compiled        = Sat_Apr_09_17:12:10_2022
    source          = /build/nwchem-f1f4gx/nwchem-7.0.2/build-openmpi
    nwchem branch   = 7.0.2
    nwchem revision = N/A
    ga revision     = 5.8.1
    use scalapack   = T
    input           = water.nw_mpi
    prefix          = water.
    data base       = ./water.db
    status          = startup
    nproc           =        4
    time left       =     -1s



           Memory information
           ------------------

    heap     =   65536000 doubles =    500.0 Mbytes
    stack    =   65535997 doubles =    500.0 Mbytes
    global   =  131072000 doubles =   1000.0 Mbytes (distinct from heap & stack)
    total    =  262143997 doubles =   2000.0 Mbytes
    verify   = yes
    hardfail = no 


           Directory information
           ---------------------

  0 permanent = .
  0 scratch   = .




                                NWChem Input Module
                                -------------------



 Scaling coordinates for geometry "geometry" by  1.889725989
 (inverse scale =  0.529177249)

 C2V symmetry detected

          ------
          auto-z
          ------
  no constraints, skipping    0.0000000000000000     
  no constraints, skipping    0.0000000000000000     


                             Geometry "geometry" -> ""
                             -------------------------

 Output coordinates in angstroms (scale by  1.889725989 to convert to a.u.)

  No.       Tag          Charge          X              Y              Z
 ---- ---------------- ---------- -------------- -------------- --------------
    1 O                    8.0000     0.00000000     0.00000000    -0.11720000
    2 H                    1.0000    -0.75700000     0.00000000     0.46880000
    3 H                    1.0000     0.75700000     0.00000000     0.46880000

      Atomic Mass 
      ----------- 

      O                 15.994910
      H                  1.007825


 Effective nuclear repulsion energy (a.u.)       9.1939138222

            Nuclear Dipole moment (a.u.) 
            ----------------------------
        X                 Y               Z
 ---------------- ---------------- ----------------
     0.0000000000     0.0000000000     0.0000000000

      Symmetry information
      --------------------

 Group name             C2v       
 Group number             16
 Group order               4
 No. of unique centers     2

      Symmetry unique atoms

     1    2



                                Z-matrix (autoz)
                                -------- 

 Units are Angstrom for bonds and degrees for angles

      Type          Name      I     J     K     L     M      Value
      ----------- --------  ----- ----- ----- ----- ----- ----------
    1 Stretch                  1     2                       0.95731
    2 Stretch                  1     3                       0.95731
    3 Bend                     2     1     3               104.51250


            XYZ format geometry
            -------------------
     3
 geometry
 O                     0.00000000     0.00000000    -0.11720000
 H                    -0.75700000     0.00000000     0.46880000
 H                     0.75700000     0.00000000     0.46880000

 ==============================================================================
                                internuclear distances
 ------------------------------------------------------------------------------
       center one      |      center two      | atomic units |  angstroms
 ------------------------------------------------------------------------------
    2 H                |   1 O                |     1.80906  |     0.95731
    3 H                |   1 O                |     1.80906  |     0.95731
 ------------------------------------------------------------------------------
                         number of included internuclear distances:          2
 ==============================================================================



 ==============================================================================
                                 internuclear angles
 ------------------------------------------------------------------------------
        center 1       |       center 2       |       center 3       |  degrees
 ------------------------------------------------------------------------------
    2 H                |   1 O                |   3 H                |   104.51
 ------------------------------------------------------------------------------
                            number of included internuclear angles:          1
 ==============================================================================





 Summary of "ao basis" -> "" (cartesian)
 ------------------------------------------------------------------------------
       Tag                 Description            Shells   Functions and Types
 ---------------- ------------------------------  ------  ---------------------
 *                           6-31G*                   on all atoms 




                           NWChem Geometry Optimization
                           ----------------------------


  no constraints, skipping    0.0000000000000000     
 maximum gradient threshold         (gmax) =   0.000450
 rms gradient threshold             (grms) =   0.000300
 maximum cartesian step threshold   (xmax) =   0.001800
 rms cartesian step threshold       (xrms) =   0.001200
 fixed trust radius                (trust) =   0.300000
 maximum step size to saddle      (sadstp) =   0.100000
 energy precision                  (eprec) =   5.0D-06
 maximum number of steps          (nptopt) =   20
 initial hessian option           (inhess) =    0
 line search option               (linopt) =    1
 hessian update option            (modupd) =    1
 saddle point option              (modsad) =    0
 initial eigen-mode to follow     (moddir) =    0
 initial variable to follow       (vardir) =    0
 follow first negative mode     (firstneg) =    T
 apply conjugacy                    (opcg) =    F
 source of zmatrix                         =   autoz   


          -------------------
          Energy Minimization
          -------------------


 Names of Z-matrix variables 
    1              2              3         

 Variables with the same non-blank name are constrained to be equal


 Using diagonal initial Hessian 
 Scaling for Hessian diagonals: bonds = 1.00  angles = 0.25  torsions = 0.10

          --------
          Step   0
          --------


                         Geometry "geometry" -> "geometry"
                         ---------------------------------

 Output coordinates in angstroms (scale by  1.889725989 to convert to a.u.)

  No.       Tag          Charge          X              Y              Z
 ---- ---------------- ---------- -------------- -------------- --------------
    1 O                    8.0000     0.00000000     0.00000000    -0.11720000
    2 H                    1.0000    -0.75700000     0.00000000     0.46880000
    3 H                    1.0000     0.75700000     0.00000000     0.46880000

      Atomic Mass 
      ----------- 

      O                 15.994910
      H                  1.007825


 Effective nuclear repulsion energy (a.u.)       9.1939138222

            Nuclear Dipole moment (a.u.) 
            ----------------------------
        X                 Y               Z
 ---------------- ---------------- ----------------
     0.0000000000     0.0000000000     0.0000000000

      Symmetry information
      --------------------

 Group name             C2v       
 Group number             16
 Group order               4
 No. of unique centers     2

      Symmetry unique atoms

     1    2


                                 NWChem DFT Module
                                 -----------------


                      Basis "ao basis" -> "ao basis" (cartesian)
                      -----
  O (Oxygen)
  ----------
            Exponent  Coefficients 
       -------------- ---------------------------------------------------------
  1 S  5.48467170E+03  0.001831
  1 S  8.25234950E+02  0.013950
  1 S  1.88046960E+02  0.068445
  1 S  5.29645000E+01  0.232714
  1 S  1.68975700E+01  0.470193
  1 S  5.79963530E+00  0.358521

  2 S  1.55396160E+01 -0.110778
  2 S  3.59993360E+00 -0.148026
  2 S  1.01376180E+00  1.130767

  3 P  1.55396160E+01  0.070874
  3 P  3.59993360E+00  0.339753
  3 P  1.01376180E+00  0.727159

  4 S  2.70005800E-01  1.000000

  5 P  2.70005800E-01  1.000000

  6 D  8.00000000E-01  1.000000

  H (Hydrogen)
  ------------
            Exponent  Coefficients 
       -------------- ---------------------------------------------------------
  1 S  1.87311370E+01  0.033495
  1 S  2.82539370E+00  0.234727
  1 S  6.40121700E-01  0.813757

  2 S  1.61277800E-01  1.000000



 Summary of "ao basis" -> "ao basis" (cartesian)
 ------------------------------------------------------------------------------
       Tag                 Description            Shells   Functions and Types
 ---------------- ------------------------------  ------  ---------------------
 O                           6-31G*                  6       15   3s2p1d
 H                           6-31G*                  2        2   2s




 Summary of "ao basis" -> "ao basis" (cartesian)
 ------------------------------------------------------------------------------
       Tag                 Description            Shells   Functions and Types
 ---------------- ------------------------------  ------  ---------------------
 O                           6-31G*                  6       15   3s2p1d
 H                           6-31G*                  2        2   2s


      Symmetry analysis of basis
      --------------------------

        a1         10
        a2          1
        b1          5
        b2          3

  Caching 1-el integrals 

            General Information
            -------------------
          SCF calculation type: DFT
          Wavefunction type:  closed shell.
          No. of atoms     :     3
          No. of electrons :    10
           Alpha electrons :     5
            Beta electrons :     5
          Charge           :     0
          Spin multiplicity:     1
          Use of symmetry is: on ; symmetry adaption is: on 
          Maximum number of iterations:  30
          AO basis - number of functions:    19
                     number of shells:    10
          Convergence on energy requested:  1.00D-06
          Convergence on density requested:  1.00D-05
          Convergence on gradient requested:  5.00D-04

              XC Information
              --------------
                        Slater Exchange Functional  1.000 local    
                      VWN V Correlation Functional  1.000 local    

             Grid Information
             ----------------
          Grid used for XC integration:  medium    
          Radial quadrature: Mura-Knowles        
          Angular quadrature: Lebedev. 
          Tag              B.-S. Rad. Rad. Pts. Rad. Cut. Ang. Pts.
          ---              ---------- --------- --------- ---------
          O                   0.60       49           5.0       434
          H                   0.35       45           6.0       434
          Grid pruning is: on 
          Number of quadrature shells:    94
          Spatial weights used:  Erf1

          Convergence Information
          -----------------------
          Convergence aids based upon iterative change in 
          total energy or number of iterations. 
          Levelshifting, if invoked, occurs when the 
          HOMO/LUMO gap drops below (HL_TOL):  1.00D-02
          DIIS, if invoked, will attempt to extrapolate 
          using up to (NFOCK): 10 stored Fock matrices.

                    Damping( 0%)  Levelshifting(0.5)       DIIS
                  --------------- ------------------- ---------------
          dE  on:    start            ASAP                start   
          dE off:    2 iters         30 iters            30 iters 


      Screening Tolerance Information
      -------------------------------
          Density screening/tol_rho:  1.00D-10
          AO Gaussian exp screening on grid/accAOfunc:  14
          CD Gaussian exp screening on grid/accCDfunc:  20
          XC Gaussian exp screening on grid/accXCfunc:  20
          Schwarz screening/accCoul:  1.00D-08


      Superposition of Atomic Density Guess
      -------------------------------------

 Sum of atomic energies:         -75.75081731

      Non-variational initial energy
      ------------------------------

 Total energy =     -75.919285
 1-e energy   =    -121.732516
 2-e energy   =      36.619317
 HOMO         =      -0.470374
 LUMO         =       0.114782


      Symmetry analysis of molecular orbitals - initial
      -------------------------------------------------

  Numbering of irreducible representations: 

     1 a1          2 a2          3 b1          4 b2      

  Orbital symmetries:

     1 a1          2 a1          3 b1          4 a1          5 b2      
     6 a1          7 b1          8 b1          9 a1         10 b2      
    11 a1         12 b1         13 a1         14 a1         15 a2      

   Time after variat. SCF:      0.2
   Time prior to 1st pass:      0.2

 #quartets = 1.009D+03 #integrals = 5.756D+03 #direct =  0.0% #cached =100.0%


 Integral file          = ./water.aoints.0
 Record size in doubles =  65536        No. of integs per rec  =  43688
 Max. records in memory =      2        Max. records in file   = 446187
 No. of bits per label  =      8        No. of bits per value  =     64


File balance: exchanges=     0  moved=     0  time=   0.0


 Grid_pts file          = ./water.gridpts.0
 Record size in doubles =  12289        No. of grid_pts per rec  =   3070
 Max. records in memory =      5        Max. recs in file   =   2379478


           Memory utilization after 1st SCF pass: 
           Heap Space remaining (MW):       65.34            65341824
          Stack Space remaining (MW):       65.54            65535764

   convergence    iter        energy       DeltaE   RMS-Dens  Diis-err    time
 ---------------- ----- ----------------- --------- --------- ---------  ------
 d= 0,ls=0.0,diis     1    -75.8064367136 -8.50D+01  4.91D-02  5.70D-01     0.3
 d= 0,ls=0.0,diis     2    -75.7726262363  3.38D-02  3.07D-02  7.90D-01     0.3
 d= 0,ls=0.0,diis     3    -75.8394083586 -6.68D-02  5.49D-03  5.68D-02     0.3
 d= 0,ls=0.0,diis     4    -75.8443135585 -4.91D-03  6.32D-04  3.96D-04     0.4
 d= 0,ls=0.0,diis     5    -75.8443537627 -4.02D-05  4.81D-05  4.49D-07     0.4
 d= 0,ls=0.0,diis     6    -75.8443538259 -6.32D-08  4.84D-06  3.00D-08     0.4


         Total DFT energy =      -75.844353825920
      One electron energy =     -123.064653495763
           Coulomb energy =       46.796453902237
    Exchange-Corr. energy =       -8.770068054614
 Nuclear repulsion energy =        9.193913822219

 Numeric. integr. density =       10.000001235766

     Total iterative time =      0.1s



                  Occupations of the irreducible representations
                  ----------------------------------------------

                     irrep           alpha         beta
                     --------     --------     --------
                     a1                3.0          3.0
                     a2                0.0          0.0
                     b1                1.0          1.0
                     b2                1.0          1.0


                       DFT Final Molecular Orbital Analysis
                       ------------------------------------

 Vector    1  Occ=2.000000D+00  E=-1.859876D+01  Symmetry=a1
              MO Center= -6.8D-19, -1.6D-24, -1.2D-01, r^2= 1.5D-02
   Bfn.  Coefficient  Atom+Function         Bfn.  Coefficient  Atom+Function  
  ----- ------------  ---------------      ----- ------------  ---------------
     1      0.990631  1 O  s                  2      0.030539  1 O  s          

 Vector    2  Occ=2.000000D+00  E=-9.031801D-01  Symmetry=a1
              MO Center= -8.8D-16,  3.5D-17,  1.1D-01, r^2= 5.1D-01
   Bfn.  Coefficient  Atom+Function         Bfn.  Coefficient  Atom+Function  
  ----- ------------  ---------------      ----- ------------  ---------------
     2      0.457216  1 O  s                  6      0.434061  1 O  s          
     1     -0.209053  1 O  s                  5      0.143377  1 O  pz         
    16      0.140995  2 H  s                 18      0.140995  3 H  s          
     9      0.066516  1 O  pz         

 Vector    3  Occ=2.000000D+00  E=-4.675834D-01  Symmetry=b1
              MO Center=  9.2D-16,  9.8D-35,  1.0D-01, r^2= 7.8D-01
   Bfn.  Coefficient  Atom+Function         Bfn.  Coefficient  Atom+Function  
  ----- ------------  ---------------      ----- ------------  ---------------
     3      0.523324  1 O  px                 7      0.267112  1 O  px         
    16     -0.232620  2 H  s                 18      0.232620  3 H  s          
    17     -0.143664  2 H  s                 19      0.143664  3 H  s          
    12      0.068577  1 O  dxz        

 Vector    4  Occ=2.000000D+00  E=-3.107268D-01  Symmetry=a1
              MO Center=  2.8D-17,  7.9D-16, -2.2D-01, r^2= 6.8D-01
   Bfn.  Coefficient  Atom+Function         Bfn.  Coefficient  Atom+Function  
  ----- ------------  ---------------      ----- ------------  ---------------
     5      0.551663  1 O  pz                 6     -0.422021  1 O  s          
     9      0.377040  1 O  pz                 2     -0.179871  1 O  s          
    16      0.134051  2 H  s                 18      0.134051  3 H  s          
    17      0.112125  2 H  s                 19      0.112125  3 H  s          
     1      0.092287  1 O  s                 15      0.053730  1 O  dzz        

 Vector    5  Occ=2.000000D+00  E=-2.310430D-01  Symmetry=b2
              MO Center=  4.8D-17,  3.7D-17, -9.5D-02, r^2= 6.0D-01
   Bfn.  Coefficient  Atom+Function         Bfn.  Coefficient  Atom+Function  
  ----- ------------  ---------------      ----- ------------  ---------------
     4      0.639679  1 O  py                 8      0.511247  1 O  py         
    14      0.065005  1 O  dyz        

 Vector    6  Occ=0.000000D+00  E= 4.296751D-02  Symmetry=a1
              MO Center=  5.6D-17, -5.0D-17,  6.1D-01, r^2= 2.4D+00
   Bfn.  Coefficient  Atom+Function         Bfn.  Coefficient  Atom+Function  
  ----- ------------  ---------------      ----- ------------  ---------------
     6      1.224570  1 O  s                 17     -0.958017  2 H  s          
    19     -0.958017  3 H  s                  9      0.451045  1 O  pz         
     5      0.290350  1 O  pz                 2      0.146073  1 O  s          
    16     -0.103570  2 H  s                 18     -0.103570  3 H  s          
     1     -0.102416  1 O  s                 13     -0.050284  1 O  dyy        

 Vector    7  Occ=0.000000D+00  E= 1.266703D-01  Symmetry=b1
              MO Center=  1.1D-16,  9.9D-32,  5.5D-01, r^2= 2.4D+00
   Bfn.  Coefficient  Atom+Function         Bfn.  Coefficient  Atom+Function  
  ----- ------------  ---------------      ----- ------------  ---------------
    17      1.266829  2 H  s                 19     -1.266829  3 H  s          
     7      0.737496  1 O  px                 3      0.434845  1 O  px         
    16      0.120609  2 H  s                 18     -0.120609  3 H  s          
    12      0.028830  1 O  dxz        

 Vector    8  Occ=0.000000D+00  E= 7.440465D-01  Symmetry=b1
              MO Center= -6.4D-16,  3.6D-19,  1.3D-01, r^2= 1.6D+00
   Bfn.  Coefficient  Atom+Function         Bfn.  Coefficient  Atom+Function  
  ----- ------------  ---------------      ----- ------------  ---------------
    16      0.836528  2 H  s                 18     -0.836528  3 H  s          
    17     -0.638458  2 H  s                 19      0.638458  3 H  s          
     7      0.459929  1 O  px                12     -0.354811  1 O  dxz        
     3      0.153507  1 O  px         

 Vector    9  Occ=0.000000D+00  E= 8.117859D-01  Symmetry=a1
              MO Center=  9.4D-16, -4.3D-16, -1.9D-01, r^2= 1.2D+00
   Bfn.  Coefficient  Atom+Function         Bfn.  Coefficient  Atom+Function  
  ----- ------------  ---------------      ----- ------------  ---------------
     5      0.871791  1 O  pz                 9     -0.700580  1 O  pz         
    16     -0.471760  2 H  s                 18     -0.471760  3 H  s          
    17      0.398116  2 H  s                 19      0.398116  3 H  s          
     6      0.298043  1 O  s                 10     -0.191536  1 O  dxx        
     2     -0.151513  1 O  s                 15     -0.099823  1 O  dzz        

 Vector   10  Occ=0.000000D+00  E= 8.285085D-01  Symmetry=b2
              MO Center= -4.0D-18,  6.9D-16, -1.1D-01, r^2= 1.1D+00
   Bfn.  Coefficient  Atom+Function         Bfn.  Coefficient  Atom+Function  
  ----- ------------  ---------------      ----- ------------  ---------------
     8     -1.036007  1 O  py                 4      0.962704  1 O  py         
    14     -0.029568  1 O  dyz        

 Vector   11  Occ=0.000000D+00  E= 8.534700D-01  Symmetry=a1
              MO Center=  1.4D-15, -8.2D-16,  9.1D-02, r^2= 1.6D+00
   Bfn.  Coefficient  Atom+Function         Bfn.  Coefficient  Atom+Function  
  ----- ------------  ---------------      ----- ------------  ---------------
     6      1.206497  1 O  s                  2     -0.774670  1 O  s          
    16      0.714066  2 H  s                 18      0.714066  3 H  s          
     9     -0.661335  1 O  pz                17     -0.525825  2 H  s          
    19     -0.525825  3 H  s                 13     -0.334872  1 O  dyy        
     5      0.269756  1 O  pz                15     -0.239387  1 O  dzz        

 Vector   12  Occ=0.000000D+00  E= 9.991274D-01  Symmetry=b1
              MO Center= -1.2D-15,  2.7D-17, -7.6D-02, r^2= 1.6D+00
   Bfn.  Coefficient  Atom+Function         Bfn.  Coefficient  Atom+Function  
  ----- ------------  ---------------      ----- ------------  ---------------
     7      1.654771  1 O  px                 3     -0.982070  1 O  px         
    17      0.985334  2 H  s                 19     -0.985334  3 H  s          
    16     -0.030181  2 H  s                 18      0.030181  3 H  s          

 Vector   13  Occ=0.000000D+00  E= 1.136630D+00  Symmetry=a1
              MO Center=  5.6D-17, -3.5D-17,  3.6D-01, r^2= 1.5D+00
   Bfn.  Coefficient  Atom+Function         Bfn.  Coefficient  Atom+Function  
  ----- ------------  ---------------      ----- ------------  ---------------
     6      3.687114  1 O  s                  2     -1.498345  1 O  s          
     9      1.063714  1 O  pz                17     -0.813008  2 H  s          
    19     -0.813008  3 H  s                 10     -0.662760  1 O  dxx        
    15     -0.387512  1 O  dzz                5     -0.364152  1 O  pz         
    16     -0.330674  2 H  s                 18     -0.330674  3 H  s          

 Vector   14  Occ=0.000000D+00  E= 1.658995D+00  Symmetry=a1
              MO Center= -5.2D-16, -2.4D-16, -1.7D-01, r^2= 6.2D-01
   Bfn.  Coefficient  Atom+Function         Bfn.  Coefficient  Atom+Function  
  ----- ------------  ---------------      ----- ------------  ---------------
    15      1.010084  1 O  dzz               10     -0.579956  1 O  dxx        
    13     -0.358367  1 O  dyy                6     -0.280082  1 O  s          
     9     -0.155774  1 O  pz                 2      0.098644  1 O  s          
    16      0.092053  2 H  s                 18      0.092053  3 H  s          
    17      0.047124  2 H  s                 19      0.047124  3 H  s          

 Vector   15  Occ=0.000000D+00  E= 1.673540D+00  Symmetry=a2
              MO Center= -4.5D-17, -2.7D-17, -1.2D-01, r^2= 6.1D-01
   Bfn.  Coefficient  Atom+Function         Bfn.  Coefficient  Atom+Function  
  ----- ------------  ---------------      ----- ------------  ---------------
    11      1.732051  1 O  dxy        

 Vector   16  Occ=0.000000D+00  E= 1.711573D+00  Symmetry=b2
              MO Center=  1.0D-18, -1.4D-18, -1.4D-01, r^2= 6.1D-01
   Bfn.  Coefficient  Atom+Function         Bfn.  Coefficient  Atom+Function  
  ----- ------------  ---------------      ----- ------------  ---------------
    14      1.730578  1 O  dyz                8     -0.036904  1 O  py         

 Vector   17  Occ=0.000000D+00  E= 2.223380D+00  Symmetry=a1
              MO Center=  1.2D-16,  2.6D-17,  5.0D-05, r^2= 8.3D-01
   Bfn.  Coefficient  Atom+Function         Bfn.  Coefficient  Atom+Function  
  ----- ------------  ---------------      ----- ------------  ---------------
     6      1.572110  1 O  s                 13     -1.127512  1 O  dyy        
    16     -0.836440  2 H  s                 18     -0.836440  3 H  s          
    10      0.756108  1 O  dxx                9      0.748556  1 O  pz         
     2     -0.515421  1 O  s                 17     -0.147740  2 H  s          
    19     -0.147740  3 H  s                 15      0.056789  1 O  dzz        

 Vector   18  Occ=0.000000D+00  E= 2.523918D+00  Symmetry=b1
              MO Center= -3.3D-16, -2.1D-20, -6.4D-02, r^2= 8.7D-01
   Bfn.  Coefficient  Atom+Function         Bfn.  Coefficient  Atom+Function  
  ----- ------------  ---------------      ----- ------------  ---------------
    12      2.223757  1 O  dxz               16      0.953018  2 H  s          
    18     -0.953018  3 H  s                  7      0.879426  1 O  px         
    17     -0.041168  2 H  s                 19      0.041168  3 H  s          
     3     -0.025291  1 O  px         

 Vector   19  Occ=0.000000D+00  E= 3.478284D+00  Symmetry=a1
              MO Center=  1.5D-17,  2.0D-21, -1.2D-01, r^2= 1.0D+00
   Bfn.  Coefficient  Atom+Function         Bfn.  Coefficient  Atom+Function  
  ----- ------------  ---------------      ----- ------------  ---------------
     6      3.747909  1 O  s                 13     -1.584511  1 O  dyy        
    15     -1.559287  1 O  dzz               10     -1.536194  1 O  dxx        
    17     -0.572831  2 H  s                 19     -0.572831  3 H  s          
     1     -0.473501  1 O  s                  9      0.336151  1 O  pz         
     2      0.269156  1 O  s                 16      0.122971  2 H  s          


 center of mass
 --------------
 x =   0.00000000 y =   0.00000000 z =  -0.09754363

 moments of inertia (a.u.)
 ------------------
           2.195141956825           0.000000000000           0.000000000000
           0.000000000000           6.319957701716           0.000000000000
           0.000000000000           0.000000000000           4.124815744891

     Multipole analysis of the density
     ---------------------------------

     L   x y z        total         alpha         beta         nuclear
     -   - - -        -----         -----         ----         -------
     0   0 0 0     -0.000000     -5.000000     -5.000000     10.000000

     1   1 0 0     -0.000000     -0.000000     -0.000000      0.000000
     1   0 1 0      0.000000      0.000000      0.000000      0.000000
     1   0 0 1      0.836437      0.418218      0.418218      0.000000

     2   2 0 0     -3.177696     -3.635243     -3.635243      4.092790
     2   1 1 0      0.000000      0.000000      0.000000      0.000000
     2   1 0 1     -0.000000     -0.000000     -0.000000      0.000000
     2   0 2 0     -5.383997     -2.691999     -2.691999      0.000000
     2   0 1 1     -0.000000     -0.000000     -0.000000      0.000000
     2   0 0 2     -4.494400     -3.228231     -3.228231      1.962063


 Parallel integral file used       4 records with       0 large values


            General Information
            -------------------
          SCF calculation type: DFT
          Wavefunction type:  closed shell.
          No. of atoms     :     3
          No. of electrons :    10
           Alpha electrons :     5
            Beta electrons :     5
          Charge           :     0
          Spin multiplicity:     1
          Use of symmetry is: on ; symmetry adaption is: on 
          Maximum number of iterations:  30
          AO basis - number of functions:    19
                     number of shells:    10
          Convergence on energy requested:  1.00D-06
          Convergence on density requested:  1.00D-05
          Convergence on gradient requested:  5.00D-04

              XC Information
              --------------
                        Slater Exchange Functional  1.000 local    
                      VWN V Correlation Functional  1.000 local    

             Grid Information
             ----------------
          Grid used for XC integration:  medium    
          Radial quadrature: Mura-Knowles        
          Angular quadrature: Lebedev. 
          Tag              B.-S. Rad. Rad. Pts. Rad. Cut. Ang. Pts.
          ---              ---------- --------- --------- ---------
          O                   0.60       49           5.0       434
          H                   0.35       45           6.0       434
          Grid pruning is: on 
          Number of quadrature shells:    94
          Spatial weights used:  Erf1

          Convergence Information
          -----------------------
          Convergence aids based upon iterative change in 
          total energy or number of iterations. 
          Levelshifting, if invoked, occurs when the 
          HOMO/LUMO gap drops below (HL_TOL):  1.00D-02
          DIIS, if invoked, will attempt to extrapolate 
          using up to (NFOCK): 10 stored Fock matrices.

                    Damping( 0%)  Levelshifting(0.5)       DIIS
                  --------------- ------------------- ---------------
          dE  on:    start            ASAP                start   
          dE off:    2 iters         30 iters            30 iters 


      Screening Tolerance Information
      -------------------------------
          Density screening/tol_rho:  1.00D-10
          AO Gaussian exp screening on grid/accAOfunc:  14
          CD Gaussian exp screening on grid/accCDfunc:  20
          XC Gaussian exp screening on grid/accXCfunc:  20
          Schwarz screening/accCoul:  1.00D-08



                            NWChem DFT Gradient Module
                            --------------------------



  charge          =   0.00
  wavefunction    = closed shell

  Using symmetry


                         DFT ENERGY GRADIENTS

    atom               coordinates                        gradient
                 x          y          z           x          y          z
   1 O       0.000000   0.000000  -0.221476    0.000000   0.000000   0.022386
   2 H      -1.430523   0.000000   0.885904    0.014244   0.000000  -0.011193
   3 H       1.430523   0.000000   0.885904   -0.014244   0.000000  -0.011193

                 ----------------------------------------
                 |  Time  |  1-e(secs)   |  2-e(secs)   |
                 ----------------------------------------
                 |  CPU   |       0.00   |       0.00   |
                 ----------------------------------------
                 |  WALL  |       0.00   |       0.01   |
                 ----------------------------------------
  no constraints, skipping    0.0000000000000000     

@ Step       Energy      Delta E   Gmax     Grms     Xrms     Xmax   Walltime
@ ---- ---------------- -------- -------- -------- -------- -------- --------
@    0     -75.84435383  0.0D+00  0.01812  0.01479  0.00000  0.00000      0.6
                                                                    



                                Z-matrix (autoz)
                                -------- 

 Units are Angstrom for bonds and degrees for angles

      Type          Name      I     J     K     L     M      Value     Gradient
      ----------- --------  ----- ----- ----- ----- ----- ---------- ----------
    1 Stretch                  1     2                       0.95731   -0.01812
    2 Stretch                  1     3                       0.95731   -0.01812
    3 Bend                     2     1     3               104.51250    0.00013

  no constraints, skipping    0.0000000000000000     
  no constraints, skipping    0.0000000000000000     
  no constraints, skipping    0.0000000000000000     
  no constraints, skipping    0.0000000000000000     

                                 NWChem DFT Module
                                 -----------------




 Summary of "ao basis" -> "ao basis" (cartesian)
 ------------------------------------------------------------------------------
       Tag                 Description            Shells   Functions and Types
 ---------------- ------------------------------  ------  ---------------------
 O                           6-31G*                  6       15   3s2p1d
 H                           6-31G*                  2        2   2s


      Symmetry analysis of basis
      --------------------------

        a1         10
        a2          1
        b1          5
        b2          3

  Caching 1-el integrals 

            General Information
            -------------------
          SCF calculation type: DFT
          Wavefunction type:  closed shell.
          No. of atoms     :     3
          No. of electrons :    10
           Alpha electrons :     5
            Beta electrons :     5
          Charge           :     0
          Spin multiplicity:     1
          Use of symmetry is: on ; symmetry adaption is: on 
          Maximum number of iterations:  30
          AO basis - number of functions:    19
                     number of shells:    10
          Convergence on energy requested:  1.00D-06
          Convergence on density requested:  1.00D-05
          Convergence on gradient requested:  5.00D-04

              XC Information
              --------------
                        Slater Exchange Functional  1.000 local    
                      VWN V Correlation Functional  1.000 local    

             Grid Information
             ----------------
          Grid used for XC integration:  medium    
          Radial quadrature: Mura-Knowles        
          Angular quadrature: Lebedev. 
          Tag              B.-S. Rad. Rad. Pts. Rad. Cut. Ang. Pts.
          ---              ---------- --------- --------- ---------
          O                   0.60       49           5.0       434
          H                   0.35       45           6.0       434
          Grid pruning is: on 
          Number of quadrature shells:    94
          Spatial weights used:  Erf1

          Convergence Information
          -----------------------
          Convergence aids based upon iterative change in 
          total energy or number of iterations. 
          Levelshifting, if invoked, occurs when the 
          HOMO/LUMO gap drops below (HL_TOL):  1.00D-02
          DIIS, if invoked, will attempt to extrapolate 
          using up to (NFOCK): 10 stored Fock matrices.

                    Damping( 0%)  Levelshifting(0.5)       DIIS
                  --------------- ------------------- ---------------
          dE  on:    start            ASAP                start   
          dE off:    2 iters         30 iters            30 iters 


      Screening Tolerance Information
      -------------------------------
          Density screening/tol_rho:  1.00D-10
          AO Gaussian exp screening on grid/accAOfunc:  14
          CD Gaussian exp screening on grid/accCDfunc:  20
          XC Gaussian exp screening on grid/accXCfunc:  20
          Schwarz screening/accCoul:  1.00D-08


 Loading old vectors from job with title :




      Symmetry analysis of molecular orbitals - initial
      -------------------------------------------------

  Numbering of irreducible representations: 

     1 a1          2 a2          3 b1          4 b2      

  Orbital symmetries:

     1 a1          2 a1          3 b1          4 a1          5 b2      
     6 a1          7 b1          8 b1          9 a1         10 b2      
    11 a1         12 b1         13 a1         14 a1         15 a2      

   Time after variat. SCF:      0.7
   Time prior to 1st pass:      0.7

 #quartets = 1.009D+03 #integrals = 5.756D+03 #direct =  0.0% #cached =100.0%


 Integral file          = ./water.aoints.0
 Record size in doubles =  65536        No. of integs per rec  =  43688
 Max. records in memory =      2        Max. records in file   = 446187
 No. of bits per label  =      8        No. of bits per value  =     64


File balance: exchanges=     0  moved=     0  time=   0.0


 Grid_pts file          = ./water.gridpts.0
 Record size in doubles =  12289        No. of grid_pts per rec  =   3070
 Max. records in memory =      5        Max. recs in file   =   2379478


           Memory utilization after 1st SCF pass: 
           Heap Space remaining (MW):       65.34            65341824
          Stack Space remaining (MW):       65.54            65535764

   convergence    iter        energy       DeltaE   RMS-Dens  Diis-err    time
 ---------------- ----- ----------------- --------- --------- ---------  ------
 d= 0,ls=0.0,diis     1    -75.8444447474 -8.48D+01  3.92D-03  2.83D-03     0.7
 d= 0,ls=0.0,diis     2    -75.8444694696 -2.47D-05  2.00D-03  4.34D-03     0.7
 d= 0,ls=0.0,diis     3    -75.8448368485 -3.67D-04  4.10D-04  2.49D-04     0.7
 d= 0,ls=0.0,diis     4    -75.8448581416 -2.13D-05  5.03D-05  2.55D-06     0.7
 d= 0,ls=0.0,diis     5    -75.8448583870 -2.45D-07  5.41D-06  1.66D-08     0.7


         Total DFT energy =      -75.844858386977
      One electron energy =     -122.625826277763
           Coulomb energy =       46.580177542239
    Exchange-Corr. energy =       -8.745814292013
 Nuclear repulsion energy =        8.946604640560

 Numeric. integr. density =       10.000001245967

     Total iterative time =      0.1s



                  Occupations of the irreducible representations
                  ----------------------------------------------

                     irrep           alpha         beta
                     --------     --------     --------
                     a1                3.0          3.0
                     a2                0.0          0.0
                     b1                1.0          1.0
                     b2                1.0          1.0


                       DFT Final Molecular Orbital Analysis
                       ------------------------------------

 Vector    1  Occ=2.000000D+00  E=-1.860301D+01  Symmetry=a1
              MO Center= -5.5D-19,  1.6D-24, -1.3D-01, r^2= 1.5D-02
   Bfn.  Coefficient  Atom+Function         Bfn.  Coefficient  Atom+Function  
  ----- ------------  ---------------      ----- ------------  ---------------
     1      0.990670  1 O  s                  2      0.030553  1 O  s          

 Vector    2  Occ=2.000000D+00  E=-8.923130D-01  Symmetry=a1
              MO Center=  4.3D-16,  5.4D-17,  9.0D-02, r^2= 5.1D-01
   Bfn.  Coefficient  Atom+Function         Bfn.  Coefficient  Atom+Function  
  ----- ------------  ---------------      ----- ------------  ---------------
     2      0.458162  1 O  s                  6      0.446142  1 O  s          
     1     -0.209896  1 O  s                  5      0.138246  1 O  pz         
    16      0.135269  2 H  s                 18      0.135269  3 H  s          
     9      0.068189  1 O  pz         

 Vector    3  Occ=2.000000D+00  E=-4.586147D-01  Symmetry=b1
              MO Center= -2.8D-17,  1.9D-19,  1.0D-01, r^2= 8.1D-01
   Bfn.  Coefficient  Atom+Function         Bfn.  Coefficient  Atom+Function  
  ----- ------------  ---------------      ----- ------------  ---------------
     3      0.519626  1 O  px                 7      0.271114  1 O  px         
    16     -0.230372  2 H  s                 18      0.230372  3 H  s          
    17     -0.149252  2 H  s                 19      0.149252  3 H  s          
    12      0.067619  1 O  dxz        

 Vector    4  Occ=2.000000D+00  E=-3.097681D-01  Symmetry=a1
              MO Center= -5.6D-16,  6.5D-17, -2.1D-01, r^2= 7.0D-01
   Bfn.  Coefficient  Atom+Function         Bfn.  Coefficient  Atom+Function  
  ----- ------------  ---------------      ----- ------------  ---------------
     5      0.548762  1 O  pz                 6     -0.420174  1 O  s          
     9      0.374820  1 O  pz                 2     -0.178779  1 O  s          
    16      0.136781  2 H  s                 18      0.136781  3 H  s          
    17      0.120111  2 H  s                 19      0.120111  3 H  s          
     1      0.091836  1 O  s                 15      0.052446  1 O  dzz        

 Vector    5  Occ=2.000000D+00  E=-2.287936D-01  Symmetry=b2
              MO Center= -1.4D-16,  5.7D-16, -1.1D-01, r^2= 6.0D-01
   Bfn.  Coefficient  Atom+Function         Bfn.  Coefficient  Atom+Function  
  ----- ------------  ---------------      ----- ------------  ---------------
     4      0.640101  1 O  py                 8      0.510854  1 O  py         
    14      0.062590  1 O  dyz        

 Vector    6  Occ=0.000000D+00  E= 3.461455D-02  Symmetry=a1
              MO Center=  5.6D-17, -3.0D-16,  6.0D-01, r^2= 2.3D+00
   Bfn.  Coefficient  Atom+Function         Bfn.  Coefficient  Atom+Function  
  ----- ------------  ---------------      ----- ------------  ---------------
     6      1.169538  1 O  s                 17     -0.931477  2 H  s          
    19     -0.931477  3 H  s                  9      0.454947  1 O  pz         
     5      0.303081  1 O  pz                 2      0.147245  1 O  s          
    16     -0.112527  2 H  s                 18     -0.112527  3 H  s          
     1     -0.101145  1 O  s                 13     -0.048089  1 O  dyy        

 Vector    7  Occ=0.000000D+00  E= 1.160362D-01  Symmetry=b1
              MO Center=  6.7D-16,  1.3D-18,  5.4D-01, r^2= 2.4D+00
   Bfn.  Coefficient  Atom+Function         Bfn.  Coefficient  Atom+Function  
  ----- ------------  ---------------      ----- ------------  ---------------
    17      1.209497  2 H  s                 19     -1.209497  3 H  s          
     7      0.723172  1 O  px                 3      0.442936  1 O  px         
    16      0.129351  2 H  s                 18     -0.129351  3 H  s          
    12      0.026323  1 O  dxz        

 Vector    8  Occ=0.000000D+00  E= 7.332488D-01  Symmetry=b1
              MO Center=  6.4D-15,  4.1D-17,  1.8D-01, r^2= 1.7D+00
   Bfn.  Coefficient  Atom+Function         Bfn.  Coefficient  Atom+Function  
  ----- ------------  ---------------      ----- ------------  ---------------
    16      0.833763  2 H  s                 18     -0.833763  3 H  s          
    17     -0.718111  2 H  s                 19      0.718111  3 H  s          
    12     -0.354905  1 O  dxz                7      0.347889  1 O  px         
     3      0.177990  1 O  px         

 Vector    9  Occ=0.000000D+00  E= 7.933575D-01  Symmetry=a1
              MO Center= -6.6D-15,  6.0D-17,  1.2D-01, r^2= 1.4D+00
   Bfn.  Coefficient  Atom+Function         Bfn.  Coefficient  Atom+Function  
  ----- ------------  ---------------      ----- ------------  ---------------
     5      0.744443  1 O  pz                16     -0.655530  2 H  s          
    18     -0.655530  3 H  s                 17      0.550253  2 H  s          
    19      0.550253  3 H  s                  9     -0.491113  1 O  pz         
    10     -0.163556  1 O  dxx               13      0.083474  1 O  dyy        
     6     -0.062355  1 O  s                  2      0.053785  1 O  s          

 Vector   10  Occ=0.000000D+00  E= 8.288377D-01  Symmetry=b2
              MO Center= -3.9D-17, -4.3D-15, -1.2D-01, r^2= 1.1D+00
   Bfn.  Coefficient  Atom+Function         Bfn.  Coefficient  Atom+Function  
  ----- ------------  ---------------      ----- ------------  ---------------
     8     -1.036225  1 O  py                 4      0.962430  1 O  py         
    14     -0.029649  1 O  dyz        

 Vector   11  Occ=0.000000D+00  E= 8.455845D-01  Symmetry=a1
              MO Center=  3.7D-16,  4.3D-15, -2.2D-01, r^2= 1.5D+00
   Bfn.  Coefficient  Atom+Function         Bfn.  Coefficient  Atom+Function  
  ----- ------------  ---------------      ----- ------------  ---------------
     6      1.336564  1 O  s                  2     -0.808986  1 O  s          
     9     -0.797470  1 O  pz                16      0.535103  2 H  s          
    18      0.535103  3 H  s                  5      0.508327  1 O  pz         
    17     -0.418514  2 H  s                 19     -0.418514  3 H  s          
    13     -0.323319  1 O  dyy               15     -0.261317  1 O  dzz        

 Vector   12  Occ=0.000000D+00  E= 9.928539D-01  Symmetry=b1
              MO Center=  1.1D-16,  3.8D-17, -1.2D-01, r^2= 1.5D+00
   Bfn.  Coefficient  Atom+Function         Bfn.  Coefficient  Atom+Function  
  ----- ------------  ---------------      ----- ------------  ---------------
     7      1.644941  1 O  px                 3     -0.972391  1 O  px         
    17      0.912619  2 H  s                 19     -0.912619  3 H  s          
    12     -0.052173  1 O  dxz        

 Vector   13  Occ=0.000000D+00  E= 1.131519D+00  Symmetry=a1
              MO Center= -6.8D-16, -7.6D-16,  3.6D-01, r^2= 1.4D+00
   Bfn.  Coefficient  Atom+Function         Bfn.  Coefficient  Atom+Function  
  ----- ------------  ---------------      ----- ------------  ---------------
     6      3.571734  1 O  s                  2     -1.470446  1 O  s          
     9      1.067921  1 O  pz                17     -0.766844  2 H  s          
    19     -0.766844  3 H  s                 10     -0.659606  1 O  dxx        
    15     -0.387549  1 O  dzz                5     -0.384938  1 O  pz         
    16     -0.341161  2 H  s                 18     -0.341161  3 H  s          

 Vector   14  Occ=0.000000D+00  E= 1.664641D+00  Symmetry=a1
              MO Center= -4.6D-17,  3.0D-17, -1.8D-01, r^2= 6.2D-01
   Bfn.  Coefficient  Atom+Function         Bfn.  Coefficient  Atom+Function  
  ----- ------------  ---------------      ----- ------------  ---------------
    15      1.009324  1 O  dzz               10     -0.584854  1 O  dxx        
    13     -0.354343  1 O  dyy                6     -0.261486  1 O  s          
     9     -0.149581  1 O  pz                 2      0.095469  1 O  s          
    16      0.087105  2 H  s                 18      0.087105  3 H  s          
    17      0.042385  2 H  s                 19      0.042385  3 H  s          

 Vector   15  Occ=0.000000D+00  E= 1.679633D+00  Symmetry=a2
              MO Center= -2.7D-16,  1.7D-16, -1.3D-01, r^2= 6.1D-01
   Bfn.  Coefficient  Atom+Function         Bfn.  Coefficient  Atom+Function  
  ----- ------------  ---------------      ----- ------------  ---------------
    11      1.732051  1 O  dxy        

 Vector   16  Occ=0.000000D+00  E= 1.715669D+00  Symmetry=b2
              MO Center=  4.5D-16,  2.1D-16, -1.5D-01, r^2= 6.1D-01
   Bfn.  Coefficient  Atom+Function         Bfn.  Coefficient  Atom+Function  
  ----- ------------  ---------------      ----- ------------  ---------------
    14      1.730666  1 O  dyz                8     -0.036227  1 O  py         

 Vector   17  Occ=0.000000D+00  E= 2.192219D+00  Symmetry=a1
              MO Center= -5.1D-16,  3.0D-18, -1.2D-02, r^2= 8.3D-01
   Bfn.  Coefficient  Atom+Function         Bfn.  Coefficient  Atom+Function  
  ----- ------------  ---------------      ----- ------------  ---------------
     6      1.465183  1 O  s                 13     -1.115760  1 O  dyy        
    16     -0.785909  2 H  s                 18     -0.785909  3 H  s          
    10      0.744135  1 O  dxx                9      0.707932  1 O  pz         
     2     -0.513166  1 O  s                 17     -0.124445  2 H  s          
    19     -0.124445  3 H  s                  5     -0.072012  1 O  pz         

 Vector   18  Occ=0.000000D+00  E= 2.478355D+00  Symmetry=b1
              MO Center=  7.6D-16, -2.5D-16, -6.4D-02, r^2= 8.7D-01
   Bfn.  Coefficient  Atom+Function         Bfn.  Coefficient  Atom+Function  
  ----- ------------  ---------------      ----- ------------  ---------------
    12      2.170183  1 O  dxz               16      0.901659  2 H  s          
    18     -0.901659  3 H  s                  7      0.826548  1 O  px         
    17     -0.061743  2 H  s                 19      0.061743  3 H  s          
     3     -0.053664  1 O  px         

 Vector   19  Occ=0.000000D+00  E= 3.464779D+00  Symmetry=a1
              MO Center= -2.0D-17,  4.1D-20, -1.3D-01, r^2= 1.0D+00
   Bfn.  Coefficient  Atom+Function         Bfn.  Coefficient  Atom+Function  
  ----- ------------  ---------------      ----- ------------  ---------------
     6      3.683454  1 O  s                 13     -1.581893  1 O  dyy        
    15     -1.547246  1 O  dzz               10     -1.518378  1 O  dxx        
    17     -0.550257  2 H  s                 19     -0.550257  3 H  s          
     1     -0.470880  1 O  s                  9      0.334420  1 O  pz         
     2      0.284888  1 O  s                  5     -0.113914  1 O  pz         


 center of mass
 --------------
 x =   0.00000000 y =   0.00000000 z =  -0.11509346

 moments of inertia (a.u.)
 ------------------
           2.322354471502           0.000000000000           0.000000000000
           0.000000000000           6.673943068477           0.000000000000
           0.000000000000           0.000000000000           4.351588596975

     Multipole analysis of the density
     ---------------------------------

     L   x y z        total         alpha         beta         nuclear
     -   - - -        -----         -----         ----         -------
     0   0 0 0     -0.000000     -5.000000     -5.000000     10.000000

     1   1 0 0     -0.000000     -0.000000     -0.000000      0.000000
     1   0 1 0      0.000000      0.000000      0.000000      0.000000
     1   0 0 1      0.840506      0.494069      0.494069     -0.147632

     2   2 0 0     -3.151114     -3.734458     -3.734458      4.317802
     2   1 1 0      0.000000      0.000000      0.000000      0.000000
     2   1 0 1      0.000000      0.000000      0.000000      0.000000
     2   0 2 0     -5.423906     -2.711953     -2.711953      0.000000
     2   0 1 1      0.000000      0.000000      0.000000      0.000000
     2   0 0 2     -4.525984     -3.301966     -3.301966      2.077947


 Parallel integral file used       4 records with       0 large values

 Line search: 
     step= 1.00 grad=-1.8D-03 hess= 1.3D-03 energy=    -75.844858 mode=downhill
 new step= 0.69                   predicted energy=    -75.844982
  no constraints, skipping    0.0000000000000000     
  no constraints, skipping    0.0000000000000000     
  no constraints, skipping    0.0000000000000000     
  no constraints, skipping    0.0000000000000000     

          --------
          Step   1
          --------


                         Geometry "geometry" -> "geometry"
                         ---------------------------------

 Output coordinates in angstroms (scale by  1.889725989 to convert to a.u.)

  No.       Tag          Charge          X              Y              Z
 ---- ---------------- ---------- -------------- -------------- --------------
    1 O                    8.0000     0.00000000     0.00000000    -0.12492929
    2 H                    1.0000    -0.77122473     0.00000000     0.47266465
    3 H                    1.0000     0.77122473     0.00000000     0.47266465

      Atomic Mass 
      ----------- 

      O                 15.994910
      H                  1.007825


 Effective nuclear repulsion energy (a.u.)       9.0211647040

            Nuclear Dipole moment (a.u.) 
            ----------------------------
        X                 Y               Z
 ---------------- ---------------- ----------------
     0.0000000000     0.0000000000    -0.1022437445

      Symmetry information
      --------------------

 Group name             C2v       
 Group number             16
 Group order               4
 No. of unique centers     2

      Symmetry unique atoms

     1    2


                                 NWChem DFT Module
                                 -----------------




 Summary of "ao basis" -> "ao basis" (cartesian)
 ------------------------------------------------------------------------------
       Tag                 Description            Shells   Functions and Types
 ---------------- ------------------------------  ------  ---------------------
 O                           6-31G*                  6       15   3s2p1d
 H                           6-31G*                  2        2   2s


      Symmetry analysis of basis
      --------------------------

        a1         10
        a2          1
        b1          5
        b2          3

  Caching 1-el integrals 

            General Information
            -------------------
          SCF calculation type: DFT
          Wavefunction type:  closed shell.
          No. of atoms     :     3
          No. of electrons :    10
           Alpha electrons :     5
            Beta electrons :     5
          Charge           :     0
          Spin multiplicity:     1
          Use of symmetry is: on ; symmetry adaption is: on 
          Maximum number of iterations:  30
          AO basis - number of functions:    19
                     number of shells:    10
          Convergence on energy requested:  1.00D-06
          Convergence on density requested:  1.00D-05
          Convergence on gradient requested:  5.00D-04

              XC Information
              --------------
                        Slater Exchange Functional  1.000 local    
                      VWN V Correlation Functional  1.000 local    

             Grid Information
             ----------------
          Grid used for XC integration:  medium    
          Radial quadrature: Mura-Knowles        
          Angular quadrature: Lebedev. 
          Tag              B.-S. Rad. Rad. Pts. Rad. Cut. Ang. Pts.
          ---              ---------- --------- --------- ---------
          O                   0.60       49           5.0       434
          H                   0.35       45           6.0       434
          Grid pruning is: on 
          Number of quadrature shells:    94
          Spatial weights used:  Erf1

          Convergence Information
          -----------------------
          Convergence aids based upon iterative change in 
          total energy or number of iterations. 
          Levelshifting, if invoked, occurs when the 
          HOMO/LUMO gap drops below (HL_TOL):  1.00D-02
          DIIS, if invoked, will attempt to extrapolate 
          using up to (NFOCK): 10 stored Fock matrices.

                    Damping( 0%)  Levelshifting(0.5)       DIIS
                  --------------- ------------------- ---------------
          dE  on:    start            ASAP                start   
          dE off:    2 iters         30 iters            30 iters 


      Screening Tolerance Information
      -------------------------------
          Density screening/tol_rho:  1.00D-10
          AO Gaussian exp screening on grid/accAOfunc:  14
          CD Gaussian exp screening on grid/accCDfunc:  20
          XC Gaussian exp screening on grid/accXCfunc:  20
          Schwarz screening/accCoul:  1.00D-08


 Loading old vectors from job with title :




      Symmetry analysis of molecular orbitals - initial
      -------------------------------------------------

  Numbering of irreducible representations: 

     1 a1          2 a2          3 b1          4 b2      

  Orbital symmetries:

     1 a1          2 a1          3 b1          4 a1          5 b2      
     6 a1          7 b1          8 b1          9 a1         10 b2      
    11 a1         12 b1         13 a1         14 a1         15 a2      

   Time after variat. SCF:      0.8
   Time prior to 1st pass:      0.8

 #quartets = 1.009D+03 #integrals = 5.756D+03 #direct =  0.0% #cached =100.0%


 Integral file          = ./water.aoints.0
 Record size in doubles =  65536        No. of integs per rec  =  43688
 Max. records in memory =      2        Max. records in file   = 446187
 No. of bits per label  =      8        No. of bits per value  =     64


File balance: exchanges=     0  moved=     0  time=   0.0


 Grid_pts file          = ./water.gridpts.0
 Record size in doubles =  12289        No. of grid_pts per rec  =   3070
 Max. records in memory =      5        Max. recs in file   =   2379478


           Memory utilization after 1st SCF pass: 
           Heap Space remaining (MW):       65.34            65341824
          Stack Space remaining (MW):       65.54            65535764

   convergence    iter        energy       DeltaE   RMS-Dens  Diis-err    time
 ---------------- ----- ----------------- --------- --------- ---------  ------
 d= 0,ls=0.0,diis     1    -75.8449319613 -8.49D+01  1.18D-03  2.58D-04     0.8
 d= 0,ls=0.0,diis     2    -75.8449358775 -3.92D-06  5.91D-04  3.83D-04     0.8
 d= 0,ls=0.0,diis     3    -75.8449681808 -3.23D-05  1.22D-04  2.24D-05     0.8
 d= 0,ls=0.0,diis     4    -75.8449700868 -1.91D-06  1.55D-05  2.35D-07     0.9
 d= 0,ls=0.0,diis     5    -75.8449701093 -2.25D-08  1.64D-06  1.65D-09     0.9


         Total DFT energy =      -75.844970109295
      One electron energy =     -122.758591132268
           Coulomb energy =       46.645579616615
    Exchange-Corr. energy =       -8.753123297629
 Nuclear repulsion energy =        9.021164703987

 Numeric. integr. density =       10.000001363841

     Total iterative time =      0.1s



                  Occupations of the irreducible representations
                  ----------------------------------------------

                     irrep           alpha         beta
                     --------     --------     --------
                     a1                3.0          3.0
                     a2                0.0          0.0
                     b1                1.0          1.0
                     b2                1.0          1.0


                       DFT Final Molecular Orbital Analysis
                       ------------------------------------

 Vector    1  Occ=2.000000D+00  E=-1.860171D+01  Symmetry=a1
              MO Center= -3.1D-19, -6.3D-24, -1.2D-01, r^2= 1.5D-02
   Bfn.  Coefficient  Atom+Function         Bfn.  Coefficient  Atom+Function  
  ----- ------------  ---------------      ----- ------------  ---------------
     1      0.990658  1 O  s                  2      0.030549  1 O  s          

 Vector    2  Occ=2.000000D+00  E=-8.955760D-01  Symmetry=a1
              MO Center= -3.8D-16,  1.7D-17,  9.4D-02, r^2= 5.1D-01
   Bfn.  Coefficient  Atom+Function         Bfn.  Coefficient  Atom+Function  
  ----- ------------  ---------------      ----- ------------  ---------------
     2      0.457850  1 O  s                  6      0.442515  1 O  s          
     1     -0.209626  1 O  s                  5      0.139812  1 O  pz         
    16      0.137012  2 H  s                 18      0.137012  3 H  s          
     9      0.067728  1 O  pz         

 Vector    3  Occ=2.000000D+00  E=-4.613264D-01  Symmetry=b1
              MO Center=  5.6D-17,  1.3D-19,  1.0D-01, r^2= 8.0D-01
   Bfn.  Coefficient  Atom+Function         Bfn.  Coefficient  Atom+Function  
  ----- ------------  ---------------      ----- ------------  ---------------
     3      0.520735  1 O  px                 7      0.269922  1 O  px         
    16     -0.231064  2 H  s                 18      0.231064  3 H  s          
    17     -0.147529  2 H  s                 19      0.147529  3 H  s          
    12      0.067917  1 O  dxz        

 Vector    4  Occ=2.000000D+00  E=-3.100434D-01  Symmetry=a1
              MO Center= -1.2D-16,  2.1D-16, -2.2D-01, r^2= 7.0D-01
   Bfn.  Coefficient  Atom+Function         Bfn.  Coefficient  Atom+Function  
  ----- ------------  ---------------      ----- ------------  ---------------
     5      0.549652  1 O  pz                 6     -0.420830  1 O  s          
     9      0.375517  1 O  pz                 2     -0.179126  1 O  s          
    16      0.135946  2 H  s                 18      0.135946  3 H  s          
    17      0.117668  2 H  s                 19      0.117668  3 H  s          
     1      0.091988  1 O  s                 15      0.052847  1 O  dzz        

 Vector    5  Occ=2.000000D+00  E=-2.294648D-01  Symmetry=b2
              MO Center=  2.5D-18, -2.4D-16, -1.0D-01, r^2= 6.0D-01
   Bfn.  Coefficient  Atom+Function         Bfn.  Coefficient  Atom+Function  
  ----- ------------  ---------------      ----- ------------  ---------------
     4      0.639957  1 O  py                 8      0.510991  1 O  py         
    14      0.063329  1 O  dyz        

 Vector    6  Occ=0.000000D+00  E= 3.720656D-02  Symmetry=a1
              MO Center= -9.0D-15, -3.0D-17,  6.0D-01, r^2= 2.3D+00
   Bfn.  Coefficient  Atom+Function         Bfn.  Coefficient  Atom+Function  
  ----- ------------  ---------------      ----- ------------  ---------------
     6      1.186405  1 O  s                 17     -0.939645  2 H  s          
    19     -0.939645  3 H  s                  9      0.453881  1 O  pz         
     5      0.299206  1 O  pz                 2      0.146923  1 O  s          
    16     -0.109808  2 H  s                 18     -0.109808  3 H  s          
     1     -0.101553  1 O  s                 13     -0.048755  1 O  dyy        

 Vector    7  Occ=0.000000D+00  E= 1.193298D-01  Symmetry=b1
              MO Center=  9.9D-15, -4.3D-18,  5.4D-01, r^2= 2.4D+00
   Bfn.  Coefficient  Atom+Function         Bfn.  Coefficient  Atom+Function  
  ----- ------------  ---------------      ----- ------------  ---------------
    17      1.226822  2 H  s                 19     -1.226822  3 H  s          
     7      0.727640  1 O  px                 3      0.440512  1 O  px         
    16      0.126701  2 H  s                 18     -0.126701  3 H  s          
    12      0.027081  1 O  dxz        

 Vector    8  Occ=0.000000D+00  E= 7.364842D-01  Symmetry=b1
              MO Center= -2.2D-14,  1.4D-17,  1.7D-01, r^2= 1.6D+00
   Bfn.  Coefficient  Atom+Function         Bfn.  Coefficient  Atom+Function  
  ----- ------------  ---------------      ----- ------------  ---------------
    16      0.834720  2 H  s                 18     -0.834720  3 H  s          
    17     -0.695062  2 H  s                 19      0.695062  3 H  s          
     7      0.381128  1 O  px                12     -0.355018  1 O  dxz        
     3      0.170954  1 O  px         

 Vector    9  Occ=0.000000D+00  E= 7.996110D-01  Symmetry=a1
              MO Center=  2.9D-14, -9.4D-17,  4.2D-02, r^2= 1.3D+00
   Bfn.  Coefficient  Atom+Function         Bfn.  Coefficient  Atom+Function  
  ----- ------------  ---------------      ----- ------------  ---------------
     5      0.782897  1 O  pz                16     -0.615857  2 H  s          
    18     -0.615857  3 H  s                  9     -0.544497  1 O  pz         
    17      0.514284  2 H  s                 19      0.514284  3 H  s          
    10     -0.172555  1 O  dxx               13      0.064241  1 O  dyy        
    15     -0.050846  1 O  dzz                1     -0.032045  1 O  s          

 Vector   10  Occ=0.000000D+00  E= 8.287378D-01  Symmetry=b2
              MO Center=  2.9D-18,  1.6D-15, -1.2D-01, r^2= 1.1D+00
   Bfn.  Coefficient  Atom+Function         Bfn.  Coefficient  Atom+Function  
  ----- ------------  ---------------      ----- ------------  ---------------
     8     -1.036150  1 O  py                 4      0.962525  1 O  py         
    14     -0.029649  1 O  dyz        

 Vector   11  Occ=0.000000D+00  E= 8.471662D-01  Symmetry=a1
              MO Center= -5.9D-15, -1.4D-15, -1.4D-01, r^2= 1.6D+00
   Bfn.  Coefficient  Atom+Function         Bfn.  Coefficient  Atom+Function  
  ----- ------------  ---------------      ----- ------------  ---------------
     6      1.309192  1 O  s                  2     -0.804170  1 O  s          
     9     -0.771927  1 O  pz                16      0.584557  2 H  s          
    18      0.584557  3 H  s                  5      0.453873  1 O  pz         
    17     -0.447671  2 H  s                 19     -0.447671  3 H  s          
    13     -0.327839  1 O  dyy               15     -0.257287  1 O  dzz        

 Vector   12  Occ=0.000000D+00  E= 9.946233D-01  Symmetry=b1
              MO Center= -7.6D-16,  2.1D-18, -1.1D-01, r^2= 1.5D+00
   Bfn.  Coefficient  Atom+Function         Bfn.  Coefficient  Atom+Function  
  ----- ------------  ---------------      ----- ------------  ---------------
     7      1.648669  1 O  px                 3     -0.975335  1 O  px         
    17      0.934828  2 H  s                 19     -0.934828  3 H  s          
    12     -0.041011  1 O  dxz        

 Vector   13  Occ=0.000000D+00  E= 1.133067D+00  Symmetry=a1
              MO Center=  6.9D-17, -5.2D-17,  3.6D-01, r^2= 1.4D+00
   Bfn.  Coefficient  Atom+Function         Bfn.  Coefficient  Atom+Function  
  ----- ------------  ---------------      ----- ------------  ---------------
     6      3.607013  1 O  s                  2     -1.478991  1 O  s          
     9      1.066793  1 O  pz                17     -0.780864  2 H  s          
    19     -0.780864  3 H  s                 10     -0.660738  1 O  dxx        
    15     -0.387570  1 O  dzz                5     -0.378519  1 O  pz         
    16     -0.338114  2 H  s                 18     -0.338114  3 H  s          

 Vector   14  Occ=0.000000D+00  E= 1.662930D+00  Symmetry=a1
              MO Center= -4.5D-17,  4.3D-17, -1.8D-01, r^2= 6.2D-01
   Bfn.  Coefficient  Atom+Function         Bfn.  Coefficient  Atom+Function  
  ----- ------------  ---------------      ----- ------------  ---------------
    15      1.009586  1 O  dzz               10     -0.583320  1 O  dxx        
    13     -0.355579  1 O  dyy                6     -0.267139  1 O  s          
     9     -0.151498  1 O  pz                 2      0.096488  1 O  s          
    16      0.088565  2 H  s                 18      0.088565  3 H  s          
    17      0.043827  2 H  s                 19      0.043827  3 H  s          

 Vector   15  Occ=0.000000D+00  E= 1.677785D+00  Symmetry=a2
              MO Center= -3.1D-18, -1.3D-17, -1.2D-01, r^2= 6.1D-01
   Bfn.  Coefficient  Atom+Function         Bfn.  Coefficient  Atom+Function  
  ----- ------------  ---------------      ----- ------------  ---------------
    11      1.732051  1 O  dxy        

 Vector   16  Occ=0.000000D+00  E= 1.714432D+00  Symmetry=b2
              MO Center= -2.3D-18, -1.2D-17, -1.5D-01, r^2= 6.1D-01
   Bfn.  Coefficient  Atom+Function         Bfn.  Coefficient  Atom+Function  
  ----- ------------  ---------------      ----- ------------  ---------------
    14      1.730639  1 O  dyz                8     -0.036450  1 O  py         

 Vector   17  Occ=0.000000D+00  E= 2.201691D+00  Symmetry=a1
              MO Center= -6.9D-17,  1.1D-18, -8.0D-03, r^2= 8.3D-01
   Bfn.  Coefficient  Atom+Function         Bfn.  Coefficient  Atom+Function  
  ----- ------------  ---------------      ----- ------------  ---------------
     6      1.497846  1 O  s                 13     -1.119473  1 O  dyy        
    16     -0.801037  2 H  s                 18     -0.801037  3 H  s          
    10      0.747566  1 O  dxx                9      0.720366  1 O  pz         
     2     -0.514357  1 O  s                 17     -0.131470  2 H  s          
    19     -0.131470  3 H  s                  5     -0.065949  1 O  pz         

 Vector   18  Occ=0.000000D+00  E= 2.492289D+00  Symmetry=b1
              MO Center=  2.8D-17,  6.1D-19, -6.4D-02, r^2= 8.7D-01
   Bfn.  Coefficient  Atom+Function         Bfn.  Coefficient  Atom+Function  
  ----- ------------  ---------------      ----- ------------  ---------------
    12      2.186258  1 O  dxz               16      0.917012  2 H  s          
    18     -0.917012  3 H  s                  7      0.842448  1 O  px         
    17     -0.055767  2 H  s                 19      0.055767  3 H  s          
     3     -0.045377  1 O  px         

 Vector   19  Occ=0.000000D+00  E= 3.468882D+00  Symmetry=a1
              MO Center=  1.7D-16, -2.6D-20, -1.2D-01, r^2= 1.0D+00
   Bfn.  Coefficient  Atom+Function         Bfn.  Coefficient  Atom+Function  
  ----- ------------  ---------------      ----- ------------  ---------------
     6      3.702950  1 O  s                 13     -1.582674  1 O  dyy        
    15     -1.550855  1 O  dzz               10     -1.523706  1 O  dxx        
    17     -0.557126  2 H  s                 19     -0.557126  3 H  s          
     1     -0.471668  1 O  s                  9      0.335014  1 O  pz         
     2      0.280209  1 O  s                  5     -0.115371  1 O  pz         


 center of mass
 --------------
 x =   0.00000000 y =   0.00000000 z =  -0.10969789

 moments of inertia (a.u.)
 ------------------
           2.282862485856           0.000000000000           0.000000000000
           0.000000000000           6.564152945713           0.000000000000
           0.000000000000           0.000000000000           4.281290459857

     Multipole analysis of the density
     ---------------------------------

     L   x y z        total         alpha         beta         nuclear
     -   - - -        -----         -----         ----         -------
     0   0 0 0     -0.000000     -5.000000     -5.000000     10.000000

     1   1 0 0      0.000000      0.000000      0.000000      0.000000
     1   0 1 0      0.000000      0.000000      0.000000      0.000000
     1   0 0 1      0.839388      0.470816      0.470816     -0.102244

     2   2 0 0     -3.159212     -3.703631     -3.703631      4.248049
     2   1 1 0      0.000000      0.000000      0.000000      0.000000
     2   1 0 1     -0.000000     -0.000000     -0.000000      0.000000
     2   0 2 0     -5.411728     -2.705864     -2.705864      0.000000
     2   0 1 1      0.000000      0.000000      0.000000      0.000000
     2   0 0 2     -4.516407     -3.278961     -3.278961      2.041514


 Parallel integral file used       4 records with       0 large values


            General Information
            -------------------
          SCF calculation type: DFT
          Wavefunction type:  closed shell.
          No. of atoms     :     3
          No. of electrons :    10
           Alpha electrons :     5
            Beta electrons :     5
          Charge           :     0
          Spin multiplicity:     1
          Use of symmetry is: on ; symmetry adaption is: on 
          Maximum number of iterations:  30
          AO basis - number of functions:    19
                     number of shells:    10
          Convergence on energy requested:  1.00D-06
          Convergence on density requested:  1.00D-05
          Convergence on gradient requested:  5.00D-04

              XC Information
              --------------
                        Slater Exchange Functional  1.000 local    
                      VWN V Correlation Functional  1.000 local    

             Grid Information
             ----------------
          Grid used for XC integration:  medium    
          Radial quadrature: Mura-Knowles        
          Angular quadrature: Lebedev. 
          Tag              B.-S. Rad. Rad. Pts. Rad. Cut. Ang. Pts.
          ---              ---------- --------- --------- ---------
          O                   0.60       49           5.0       434
          H                   0.35       45           6.0       434
          Grid pruning is: on 
          Number of quadrature shells:    94
          Spatial weights used:  Erf1

          Convergence Information
          -----------------------
          Convergence aids based upon iterative change in 
          total energy or number of iterations. 
          Levelshifting, if invoked, occurs when the 
          HOMO/LUMO gap drops below (HL_TOL):  1.00D-02
          DIIS, if invoked, will attempt to extrapolate 
          using up to (NFOCK): 10 stored Fock matrices.

                    Damping( 0%)  Levelshifting(0.5)       DIIS
                  --------------- ------------------- ---------------
          dE  on:    start            ASAP                start   
          dE off:    2 iters         30 iters            30 iters 


      Screening Tolerance Information
      -------------------------------
          Density screening/tol_rho:  1.00D-10
          AO Gaussian exp screening on grid/accAOfunc:  14
          CD Gaussian exp screening on grid/accCDfunc:  20
          XC Gaussian exp screening on grid/accXCfunc:  20
          Schwarz screening/accCoul:  1.00D-08



                            NWChem DFT Gradient Module
                            --------------------------



  charge          =   0.00
  wavefunction    = closed shell

  Using symmetry


                         DFT ENERGY GRADIENTS

    atom               coordinates                        gradient
                 x          y          z           x          y          z
   1 O       0.000000   0.000000  -0.236082    0.000000   0.000000   0.001981
   2 H      -1.457403   0.000000   0.893207   -0.000746   0.000000  -0.000990
   3 H       1.457403   0.000000   0.893207    0.000746   0.000000  -0.000990

                 ----------------------------------------
                 |  Time  |  1-e(secs)   |  2-e(secs)   |
                 ----------------------------------------
                 |  CPU   |       0.00   |       0.01   |
                 ----------------------------------------
                 |  WALL  |       0.00   |       0.01   |
                 ----------------------------------------
  no constraints, skipping    0.0000000000000000     

  Step       Energy      Delta E   Gmax     Grms     Xrms     Xmax   Walltime
  ---- ---------------- -------- -------- -------- -------- -------- --------
@    1     -75.84497011 -6.2D-04  0.00121  0.00070  0.01400  0.02686      1.0
                                                                    



                                Z-matrix (autoz)
                                -------- 

 Units are Angstrom for bonds and degrees for angles

      Type          Name      I     J     K     L     M      Value     Gradient
      ----------- --------  ----- ----- ----- ----- ----- ---------- ----------
    1 Stretch                  1     2                       0.97566   -0.00002
    2 Stretch                  1     3                       0.97566   -0.00002
    3 Bend                     2     1     3               104.45840    0.00121

  no constraints, skipping    0.0000000000000000     
  no constraints, skipping    0.0000000000000000     
  no constraints, skipping    0.0000000000000000     
  no constraints, skipping    0.0000000000000000     

                                 NWChem DFT Module
                                 -----------------




 Summary of "ao basis" -> "ao basis" (cartesian)
 ------------------------------------------------------------------------------
       Tag                 Description            Shells   Functions and Types
 ---------------- ------------------------------  ------  ---------------------
 O                           6-31G*                  6       15   3s2p1d
 H                           6-31G*                  2        2   2s


      Symmetry analysis of basis
      --------------------------

        a1         10
        a2          1
        b1          5
        b2          3

  Caching 1-el integrals 

            General Information
            -------------------
          SCF calculation type: DFT
          Wavefunction type:  closed shell.
          No. of atoms     :     3
          No. of electrons :    10
           Alpha electrons :     5
            Beta electrons :     5
          Charge           :     0
          Spin multiplicity:     1
          Use of symmetry is: on ; symmetry adaption is: on 
          Maximum number of iterations:  30
          AO basis - number of functions:    19
                     number of shells:    10
          Convergence on energy requested:  1.00D-06
          Convergence on density requested:  1.00D-05
          Convergence on gradient requested:  5.00D-04

              XC Information
              --------------
                        Slater Exchange Functional  1.000 local    
                      VWN V Correlation Functional  1.000 local    

             Grid Information
             ----------------
          Grid used for XC integration:  medium    
          Radial quadrature: Mura-Knowles        
          Angular quadrature: Lebedev. 
          Tag              B.-S. Rad. Rad. Pts. Rad. Cut. Ang. Pts.
          ---              ---------- --------- --------- ---------
          O                   0.60       49           5.0       434
          H                   0.35       45           6.0       434
          Grid pruning is: on 
          Number of quadrature shells:    94
          Spatial weights used:  Erf1

          Convergence Information
          -----------------------
          Convergence aids based upon iterative change in 
          total energy or number of iterations. 
          Levelshifting, if invoked, occurs when the 
          HOMO/LUMO gap drops below (HL_TOL):  1.00D-02
          DIIS, if invoked, will attempt to extrapolate 
          using up to (NFOCK): 10 stored Fock matrices.

                    Damping( 0%)  Levelshifting(0.5)       DIIS
                  --------------- ------------------- ---------------
          dE  on:    start            ASAP                start   
          dE off:    2 iters         30 iters            30 iters 


      Screening Tolerance Information
      -------------------------------
          Density screening/tol_rho:  1.00D-10
          AO Gaussian exp screening on grid/accAOfunc:  14
          CD Gaussian exp screening on grid/accCDfunc:  20
          XC Gaussian exp screening on grid/accXCfunc:  20
[...]
   Bfn.  Coefficient  Atom+Function         Bfn.  Coefficient  Atom+Function  
  ----- ------------  ---------------      ----- ------------  ---------------
    11      1.732051  1 O  dxy        

 Vector   16  Occ=0.000000D+00  E= 1.713512D+00  Symmetry=b2
              MO Center= -1.7D-16,  8.6D-18, -1.5D-01, r^2= 6.1D-01
   Bfn.  Coefficient  Atom+Function         Bfn.  Coefficient  Atom+Function  
  ----- ------------  ---------------      ----- ------------  ---------------
    14      1.730621  1 O  dyz                8     -0.036741  1 O  py         

 Vector   17  Occ=0.000000D+00  E= 2.200887D+00  Symmetry=a1
              MO Center=  3.5D-16, -1.2D-17, -9.1D-03, r^2= 8.3D-01
   Bfn.  Coefficient  Atom+Function         Bfn.  Coefficient  Atom+Function  
  ----- ------------  ---------------      ----- ------------  ---------------
     6      1.505274  1 O  s                 13     -1.124734  1 O  dyy        
    16     -0.802289  2 H  s                 18     -0.802289  3 H  s          
    10      0.733294  1 O  dxx                9      0.729337  1 O  pz         
     2     -0.517576  1 O  s                 17     -0.133435  2 H  s          
    19     -0.133435  3 H  s                 15      0.076491  1 O  dzz        

 Vector   18  Occ=0.000000D+00  E= 2.490229D+00  Symmetry=b1
              MO Center= -1.8D-16, -5.1D-22, -6.8D-02, r^2= 8.7D-01
   Bfn.  Coefficient  Atom+Function         Bfn.  Coefficient  Atom+Function  
  ----- ------------  ---------------      ----- ------------  ---------------
    12      2.186432  1 O  dxz               16      0.913621  2 H  s          
    18     -0.913621  3 H  s                  7      0.830391  1 O  px         
    17     -0.060086  2 H  s                 19      0.060086  3 H  s          
     3     -0.044528  1 O  px         

 Vector   19  Occ=0.000000D+00  E= 3.467219D+00  Symmetry=a1
              MO Center= -5.0D-16,  1.6D-20, -1.3D-01, r^2= 1.0D+00
   Bfn.  Coefficient  Atom+Function         Bfn.  Coefficient  Atom+Function  
  ----- ------------  ---------------      ----- ------------  ---------------
     6      3.699193  1 O  s                 13     -1.582770  1 O  dyy        
    15     -1.549346  1 O  dzz               10     -1.522709  1 O  dxx        
    17     -0.555189  2 H  s                 19     -0.555189  3 H  s          
     1     -0.471495  1 O  s                  9      0.338015  1 O  pz         
     2      0.281075  1 O  s                  5     -0.116022  1 O  pz         


 center of mass
 --------------
 x =   0.00000000 y =   0.00000000 z =  -0.11571535

 moments of inertia (a.u.)
 ------------------
           2.326928097025           0.000000000000           0.000000000000
           0.000000000000           6.565583047889           0.000000000000
           0.000000000000           0.000000000000           4.238654950864

     Multipole analysis of the density
     ---------------------------------

     L   x y z        total         alpha         beta         nuclear
     -   - - -        -----         -----         ----         -------
     0   0 0 0     -0.000000     -5.000000     -5.000000     10.000000

     1   1 0 0      0.000000      0.000000      0.000000      0.000000
     1   0 1 0     -0.000000     -0.000000     -0.000000      0.000000
     1   0 0 1      0.844460      0.498662      0.498662     -0.152864

     2   2 0 0     -3.186656     -3.696200     -3.696200      4.205745
     2   1 1 0     -0.000000     -0.000000     -0.000000      0.000000
     2   1 0 1      0.000000      0.000000      0.000000      0.000000
     2   0 2 0     -5.412756     -2.706378     -2.706378      0.000000
     2   0 1 1     -0.000000     -0.000000     -0.000000      0.000000
     2   0 0 2     -4.509602     -3.295898     -3.295898      2.082193


 Parallel integral file used       4 records with       0 large values

 Line search: 
     step= 1.00 grad=-1.6D-07 hess= 8.1D-08 energy=    -75.844986 mode=accept  
 new step= 1.00                   predicted energy=    -75.844986
  no constraints, skipping    0.0000000000000000     
  no constraints, skipping    0.0000000000000000     
  no constraints, skipping    0.0000000000000000     

          --------
          Step   3
          --------


                         Geometry "geometry" -> "geometry"
                         ---------------------------------

 Output coordinates in angstroms (scale by  1.889725989 to convert to a.u.)

  No.       Tag          Charge          X              Y              Z
 ---- ---------------- ---------- -------------- -------------- --------------
    1 O                    8.0000     0.00000000     0.00000000    -0.12875599
    2 H                    1.0000    -0.76737498     0.00000000     0.47457800
    3 H                    1.0000     0.76737498     0.00000000     0.47457800

      Atomic Mass 
      ----------- 

      O                 15.994910
      H                  1.007825


 Effective nuclear repulsion energy (a.u.)       9.0184670034

            Nuclear Dipole moment (a.u.) 
            ----------------------------
        X                 Y               Z
 ---------------- ---------------- ----------------
     0.0000000000     0.0000000000    -0.1528636221

      Symmetry information
      --------------------

 Group name             C2v       
 Group number             16
 Group order               4
 No. of unique centers     2

      Symmetry unique atoms

     1    2


                                 NWChem DFT Module
                                 -----------------




 Summary of "ao basis" -> "ao basis" (cartesian)
 ------------------------------------------------------------------------------
       Tag                 Description            Shells   Functions and Types
 ---------------- ------------------------------  ------  ---------------------
 O                           6-31G*                  6       15   3s2p1d
 H                           6-31G*                  2        2   2s


      Symmetry analysis of basis
      --------------------------

        a1         10
        a2          1
        b1          5
        b2          3


  The DFT is already converged 

         Total DFT energy =    -75.844986300788


            General Information
            -------------------
          SCF calculation type: DFT
          Wavefunction type:  closed shell.
          No. of atoms     :     3
          No. of electrons :    10
           Alpha electrons :     5
            Beta electrons :     5
          Charge           :     0
          Spin multiplicity:     1
          Use of symmetry is: on ; symmetry adaption is: on 
          Maximum number of iterations:  30
          AO basis - number of functions:    19
                     number of shells:    10
          Convergence on energy requested:  1.00D-06
          Convergence on density requested:  1.00D-05
          Convergence on gradient requested:  5.00D-04

              XC Information
              --------------
                        Slater Exchange Functional  1.000 local    
                      VWN V Correlation Functional  1.000 local    

             Grid Information
             ----------------
          Grid used for XC integration:  medium    
          Radial quadrature: Mura-Knowles        
          Angular quadrature: Lebedev. 
          Tag              B.-S. Rad. Rad. Pts. Rad. Cut. Ang. Pts.
          ---              ---------- --------- --------- ---------
          O                   0.60       49           5.0       434
          H                   0.35       45           6.0       434
          Grid pruning is: on 
          Number of quadrature shells:    94
          Spatial weights used:  Erf1

          Convergence Information
          -----------------------
          Convergence aids based upon iterative change in 
          total energy or number of iterations. 
          Levelshifting, if invoked, occurs when the 
          HOMO/LUMO gap drops below (HL_TOL):  1.00D-02
          DIIS, if invoked, will attempt to extrapolate 
          using up to (NFOCK): 10 stored Fock matrices.

                    Damping( 0%)  Levelshifting(0.5)       DIIS
                  --------------- ------------------- ---------------
          dE  on:    start            ASAP                start   
          dE off:    2 iters         30 iters            30 iters 


      Screening Tolerance Information
      -------------------------------
          Density screening/tol_rho:  1.00D-10
          AO Gaussian exp screening on grid/accAOfunc:  14
          CD Gaussian exp screening on grid/accCDfunc:  20
          XC Gaussian exp screening on grid/accXCfunc:  20
          Schwarz screening/accCoul:  1.00D-08



                            NWChem DFT Gradient Module
                            --------------------------



  charge          =   0.00
  wavefunction    = closed shell

  Using symmetry


                         DFT ENERGY GRADIENTS

    atom               coordinates                        gradient
                 x          y          z           x          y          z
   1 O       0.000000   0.000000  -0.243314    0.000000   0.000000   0.000000
   2 H      -1.450128   0.000000   0.896822    0.000001   0.000000  -0.000000
   3 H       1.450128   0.000000   0.896822   -0.000001   0.000000  -0.000000

                 ----------------------------------------
                 |  Time  |  1-e(secs)   |  2-e(secs)   |
                 ----------------------------------------
                 |  CPU   |       0.00   |       0.01   |
                 ----------------------------------------
                 |  WALL  |       0.00   |       0.01   |
                 ----------------------------------------
  no constraints, skipping    0.0000000000000000     

  Step       Energy      Delta E   Gmax     Grms     Xrms     Xmax   Walltime
  ---- ---------------- -------- -------- -------- -------- -------- --------
@    3     -75.84498630 -7.5D-08  0.00000  0.00000  0.00031  0.00052      1.7
                                     ok       ok       ok       ok  



                                Z-matrix (autoz)
                                -------- 

 Units are Angstrom for bonds and degrees for angles

      Type          Name      I     J     K     L     M      Value     Gradient
      ----------- --------  ----- ----- ----- ----- ----- ---------- ----------
    1 Stretch                  1     2                       0.97615   -0.00000
    2 Stretch                  1     3                       0.97615   -0.00000
    3 Bend                     2     1     3               103.64895   -0.00000


      ----------------------
      Optimization converged
      ----------------------


  Step       Energy      Delta E   Gmax     Grms     Xrms     Xmax   Walltime
  ---- ---------------- -------- -------- -------- -------- -------- --------
@    3     -75.84498630 -7.5D-08  0.00000  0.00000  0.00031  0.00052      1.7
                                     ok       ok       ok       ok  



                                Z-matrix (autoz)
                                -------- 

 Units are Angstrom for bonds and degrees for angles

      Type          Name      I     J     K     L     M      Value     Gradient
      ----------- --------  ----- ----- ----- ----- ----- ---------- ----------
    1 Stretch                  1     2                       0.97615   -0.00000
    2 Stretch                  1     3                       0.97615   -0.00000
    3 Bend                     2     1     3               103.64895   -0.00000



                         Geometry "geometry" -> "geometry"
                         ---------------------------------

 Output coordinates in angstroms (scale by  1.889725989 to convert to a.u.)

  No.       Tag          Charge          X              Y              Z
 ---- ---------------- ---------- -------------- -------------- --------------
    1 O                    8.0000     0.00000000     0.00000000    -0.12875599
    2 H                    1.0000    -0.76737498     0.00000000     0.47457800
    3 H                    1.0000     0.76737498     0.00000000     0.47457800

      Atomic Mass 
      ----------- 

      O                 15.994910
      H                  1.007825


 Effective nuclear repulsion energy (a.u.)       9.0184670034

            Nuclear Dipole moment (a.u.) 
            ----------------------------
        X                 Y               Z
 ---------------- ---------------- ----------------
     0.0000000000     0.0000000000    -0.1528636221

      Symmetry information
      --------------------

 Group name             C2v       
 Group number             16
 Group order               4
 No. of unique centers     2

      Symmetry unique atoms

     1    2


                Final and change from initial internal coordinates
                --------------------------------------------------



                                Z-matrix (autoz)
                                -------- 

 Units are Angstrom for bonds and degrees for angles

      Type          Name      I     J     K     L     M      Value       Change
      ----------- --------  ----- ----- ----- ----- ----- ---------- ----------
    1 Stretch                  1     2                       0.97615    0.01884
    2 Stretch                  1     3                       0.97615    0.01884
    3 Bend                     2     1     3               103.64895   -0.86355

 ==============================================================================
                                internuclear distances
 ------------------------------------------------------------------------------
       center one      |      center two      | atomic units |  angstroms
 ------------------------------------------------------------------------------
    2 H                |   1 O                |     1.84466  |     0.97615
    3 H                |   1 O                |     1.84466  |     0.97615
 ------------------------------------------------------------------------------
                         number of included internuclear distances:          2
 ==============================================================================



 ==============================================================================
                                 internuclear angles
 ------------------------------------------------------------------------------
        center 1       |       center 2       |       center 3       |  degrees
 ------------------------------------------------------------------------------
    2 H                |   1 O                |   3 H                |   103.65
 ------------------------------------------------------------------------------
                            number of included internuclear angles:          1
 ==============================================================================




 Task  times  cpu:        2.6s     wall:        1.6s


                                NWChem Input Module
                                -------------------


 Summary of allocated global arrays
-----------------------------------
  No active global arrays



                         GA Statistics for process    0
                         ------------------------------

       create   destroy   get      put      acc     scatter   gather  read&inc
calls:  925      897     7550     1959     1985        0        0      761     
number of processes/call 0.00e+00 0.00e+00 0.00e+00 0.00e+00 0.00e+00
bytes total:             4.23e+06 1.23e+06 2.00e+06 0.00e+00 0.00e+00 6.09e+03
bytes remote:            1.30e+06 2.43e+05 5.84e+05 0.00e+00 0.00e+00 0.00e+00
Max memory consumed for GA by this process: 66440 bytes

MA_summarize_allocated_blocks: starting scan ...
MA_summarize_allocated_blocks: scan completed: 0 heap blocks, 0 stack blocks
MA usage statistics:

	allocation statistics:
					      heap	     stack
					      ----	     -----
	current number of blocks	         0	         0
	maximum number of blocks	        25	        55
	current total bytes		         0	         0
	maximum total bytes		   1553224	  22510536
	maximum total K-bytes		      1554	     22511
	maximum total M-bytes		         2	        23


                                     CITATION
                                     --------
                Please cite the following reference when publishing
                           results obtained with NWChem:

          E. Apr, E. J. Bylaska, W. A. de Jong, N. Govind, K. Kowalski,
       T. P. Straatsma, M. Valiev, H. J. J. van Dam, Y. Alexeev, J. Anchell,
       V. Anisimov, F. W. Aquino, R. Atta-Fynn, J. Autschbach, N. P. Bauman,
     J. C. Becca, D. E. Bernholdt, K. Bhaskaran-Nair, S. Bogatko, P. Borowski,
        J. Boschen, J. Brabec, A. Bruner, E. Caut, Y. Chen, G. N. Chuev,
      C. J. Cramer, J. Daily, M. J. O. Deegan, T. H. Dunning Jr., M. Dupuis,
   K. G. Dyall, G. I. Fann, S. A. Fischer, A. Fonari, H. Frchtl, L. Gagliardi,
      J. Garza, N. Gawande, S. Ghosh, K. Glaesemann, A. W. Gtz, J. Hammond,
       V. Helms, E. D. Hermes, K. Hirao, S. Hirata, M. Jacquelin, L. Jensen,
   B. G. Johnson, H. Jnsson, R. A. Kendall, M. Klemm, R. Kobayashi, V. Konkov,
      S. Krishnamoorthy, M. Krishnan, Z. Lin, R. D. Lins, R. J. Littlefield,
      A. J. Logsdail, K. Lopata, W. Ma, A. V. Marenich, J. Martin del Campo,
   D. Mejia-Rodriguez, J. E. Moore, J. M. Mullin, T. Nakajima, D. R. Nascimento,
    J. A. Nichols, P. J. Nichols, J. Nieplocha, A. Otero-de-la-Roza, B. Palmer,
    A. Panyala, T. Pirojsirikul, B. Peng, R. Peverati, J. Pittner, L. Pollack,
   R. M. Richard, P. Sadayappan, G. C. Schatz, W. A. Shelton, D. W. Silverstein,
   D. M. A. Smith, T. A. Soares, D. Song, M. Swart, H. L. Taylor, G. S. Thomas,
            V. Tipparaju, D. G. Truhlar, K. Tsemekhman, T. Van Voorhis,
     . Vzquez-Mayagoitia, P. Verma, O. Villa, A. Vishnu, K. D. Vogiatzis,
        D. Wang, J. H. Weare, M. J. Williamson, T. L. Windus, K. Woliski,
        A. T. Wong, Q. Wu, C. Yang, Q. Yu, M. Zacharias, Z. Zhang, Y. Zhao,
                                and R. J. Harrison
                        "NWChem: Past, present, and future
                         J. Chem. Phys. 152, 184102 (2020)
                               doi:10.1063/5.0004997

                                      AUTHORS
                                      -------
     E. Apra, E. J. Bylaska, N. Govind, K. Kowalski, M. Valiev, W. A. de Jong,
      T. P. Straatsma, H. J. J. van Dam, D. Wang, T. L. Windus, N. P. Bauman,
       A. Panyala, J. Hammond, J. Autschbach, K. Bhaskaran-Nair, J. Brabec,
    K. Lopata, S. A. Fischer, S. Krishnamoorthy, M. Jacquelin, W. Ma, M. Klemm,
       O. Villa, Y. Chen, V. Anisimov, F. Aquino, S. Hirata, M. T. Hackler,
           Eric Hermes, L. Jensen, J. E. Moore, J. C. Becca, V. Konjkov,
            D. Mejia-Rodriguez, T. Risthaus, M. Malagoli, A. Marenich,
   A. Otero-de-la-Roza, J. Mullin, P. Nichols, R. Peverati, J. Pittner, Y. Zhao,
        P.-D. Fan, A. Fonari, M. J. Williamson, R. J. Harrison, J. R. Rehr,
      M. Dupuis, D. Silverstein, D. M. A. Smith, J. Nieplocha, V. Tipparaju,
      M. Krishnan, B. E. Van Kuiken, A. Vazquez-Mayagoitia, M. Swart, Q. Wu,
   T. Van Voorhis, A. A. Auer, M. Nooijen, L. D. Crosby, E. Brown, G. Cisneros,
     G. I. Fann, H. Fruchtl, J. Garza, K. Hirao, R. A. Kendall, J. A. Nichols,
       K. Tsemekhman, K. Wolinski, J. Anchell, D. E. Bernholdt, P. Borowski,
       T. Clark, D. Clerc, H. Dachsel, M. J. O. Deegan, K. Dyall, D. Elwood,
      E. Glendening, M. Gutowski, A. C. Hess, J. Jaffe, B. G. Johnson, J. Ju,
        R. Kobayashi, R. Kutteh, Z. Lin, R. Littlefield, X. Long, B. Meng,
      T. Nakajima, S. Niu, L. Pollack, M. Rosing, K. Glaesemann, G. Sandrone,
      M. Stave, H. Taylor, G. Thomas, J. H. van Lenthe, A. T. Wong, Z. Zhang.

 Total times  cpu:        2.6s     wall:        1.7s
